12
	Energy:      16.2269668
C         -5.55371        2.36905        0.00000
C         -5.50905        0.97494        0.00000
C         -4.27938        0.31657        0.00000
C         -3.09438        1.05230        0.00000
C         -3.13904        2.44642        0.00000
C         -4.36871        3.10479        0.00000
H         -6.51177        2.88200        0.00000
H         -6.43230        0.40171        0.00000
H         -4.24458       -0.76961        0.00000
H         -2.13632        0.53936        0.00000
H         -2.21579        3.01964        0.00000
H         -4.40351        4.19096        0.00000
